# The init config for the diblocks
64000  atoms
60800  bonds
2  atom types
1  bond types

0 43  xlo xhi
0 43  ylo yhi
0 43  zlo zhi

 Masses

1 1
2 1

 Atoms

1 0 2 0 0 0
2 0 2 1 0 0
3 0 2 2 0 0
4 0 2 3 0 0
5 0 2 4 0 0
6 0 2 5 0 0
7 0 2 6 0 0
8 0 2 7 0 0
9 0 2 8 0 0
10 0 2 9 0 0
11 0 1 10 0 0
12 0 1 11 0 0
13 0 1 12 0 0
14 0 1 13 0 0
15 0 1 14 0 0
16 0 1 15 0 0
17 0 1 16 0 0
18 0 1 17 0 0
19 0 1 18 0 0
20 0 1 19 0 0
21 1 2 0 0 1.075
22 1 2 1 0 1.075
23 1 2 2 0 1.075
24 1 2 3 0 1.075
25 1 2 4 0 1.075
26 1 2 5 0 1.075
27 1 2 6 0 1.075
28 1 2 7 0 1.075
29 1 2 8 0 1.075
30 1 2 9 0 1.075
31 1 1 10 0 1.075
32 1 1 11 0 1.075
33 1 1 12 0 1.075
34 1 1 13 0 1.075
35 1 1 14 0 1.075
36 1 1 15 0 1.075
37 1 1 16 0 1.075
38 1 1 17 0 1.075
39 1 1 18 0 1.075
40 1 1 19 0 1.075
41 2 2 0 0 2.15
42 2 2 1 0 2.15
43 2 2 2 0 2.15
44 2 2 3 0 2.15
45 2 2 4 0 2.15
46 2 2 5 0 2.15
47 2 2 6 0 2.15
48 2 2 7 0 2.15
49 2 2 8 0 2.15
50 2 2 9 0 2.15
51 2 1 10 0 2.15
52 2 1 11 0 2.15
53 2 1 12 0 2.15
54 2 1 13 0 2.15
55 2 1 14 0 2.15
56 2 1 15 0 2.15
57 2 1 16 0 2.15
58 2 1 17 0 2.15
59 2 1 18 0 2.15
60 2 1 19 0 2.15
61 3 2 0 0 3.225
62 3 2 1 0 3.225
63 3 2 2 0 3.225
64 3 2 3 0 3.225
65 3 2 4 0 3.225
66 3 2 5 0 3.225
67 3 2 6 0 3.225
68 3 2 7 0 3.225
69 3 2 8 0 3.225
70 3 2 9 0 3.225
71 3 1 10 0 3.225
72 3 1 11 0 3.225
73 3 1 12 0 3.225
74 3 1 13 0 3.225
75 3 1 14 0 3.225
76 3 1 15 0 3.225
77 3 1 16 0 3.225
78 3 1 17 0 3.225
79 3 1 18 0 3.225
80 3 1 19 0 3.225
81 4 2 0 0 4.3
82 4 2 1 0 4.3
83 4 2 2 0 4.3
84 4 2 3 0 4.3
85 4 2 4 0 4.3
86 4 2 5 0 4.3
87 4 2 6 0 4.3
88 4 2 7 0 4.3
89 4 2 8 0 4.3
90 4 2 9 0 4.3
91 4 1 10 0 4.3
92 4 1 11 0 4.3
93 4 1 12 0 4.3
94 4 1 13 0 4.3
95 4 1 14 0 4.3
96 4 1 15 0 4.3
97 4 1 16 0 4.3
98 4 1 17 0 4.3
99 4 1 18 0 4.3
100 4 1 19 0 4.3
101 5 2 0 0 5.375
102 5 2 1 0 5.375
103 5 2 2 0 5.375
104 5 2 3 0 5.375
105 5 2 4 0 5.375
106 5 2 5 0 5.375
107 5 2 6 0 5.375
108 5 2 7 0 5.375
109 5 2 8 0 5.375
110 5 2 9 0 5.375
111 5 1 10 0 5.375
112 5 1 11 0 5.375
113 5 1 12 0 5.375
114 5 1 13 0 5.375
115 5 1 14 0 5.375
116 5 1 15 0 5.375
117 5 1 16 0 5.375
118 5 1 17 0 5.375
119 5 1 18 0 5.375
120 5 1 19 0 5.375
121 6 2 0 0 6.45
122 6 2 1 0 6.45
123 6 2 2 0 6.45
124 6 2 3 0 6.45
125 6 2 4 0 6.45
126 6 2 5 0 6.45
127 6 2 6 0 6.45
128 6 2 7 0 6.45
129 6 2 8 0 6.45
130 6 2 9 0 6.45
131 6 1 10 0 6.45
132 6 1 11 0 6.45
133 6 1 12 0 6.45
134 6 1 13 0 6.45
135 6 1 14 0 6.45
136 6 1 15 0 6.45
137 6 1 16 0 6.45
138 6 1 17 0 6.45
139 6 1 18 0 6.45
140 6 1 19 0 6.45
141 7 2 0 0 7.525
142 7 2 1 0 7.525
143 7 2 2 0 7.525
144 7 2 3 0 7.525
145 7 2 4 0 7.525
146 7 2 5 0 7.525
147 7 2 6 0 7.525
148 7 2 7 0 7.525
149 7 2 8 0 7.525
150 7 2 9 0 7.525
151 7 1 10 0 7.525
152 7 1 11 0 7.525
153 7 1 12 0 7.525
154 7 1 13 0 7.525
155 7 1 14 0 7.525
156 7 1 15 0 7.525
157 7 1 16 0 7.525
158 7 1 17 0 7.525
159 7 1 18 0 7.525
160 7 1 19 0 7.525
161 8 2 0 0 8.6
162 8 2 1 0 8.6
163 8 2 2 0 8.6
164 8 2 3 0 8.6
165 8 2 4 0 8.6
166 8 2 5 0 8.6
167 8 2 6 0 8.6
168 8 2 7 0 8.6
169 8 2 8 0 8.6
170 8 2 9 0 8.6
171 8 1 10 0 8.6
172 8 1 11 0 8.6
173 8 1 12 0 8.6
174 8 1 13 0 8.6
175 8 1 14 0 8.6
176 8 1 15 0 8.6
177 8 1 16 0 8.6
178 8 1 17 0 8.6
179 8 1 18 0 8.6
180 8 1 19 0 8.6
181 9 2 0 0 9.675
182 9 2 1 0 9.675
183 9 2 2 0 9.675
184 9 2 3 0 9.675
185 9 2 4 0 9.675
186 9 2 5 0 9.675
187 9 2 6 0 9.675
188 9 2 7 0 9.675
189 9 2 8 0 9.675
190 9 2 9 0 9.675
191 9 1 10 0 9.675
192 9 1 11 0 9.675
193 9 1 12 0 9.675
194 9 1 13 0 9.675
195 9 1 14 0 9.675
196 9 1 15 0 9.675
197 9 1 16 0 9.675
198 9 1 17 0 9.675
199 9 1 18 0 9.675
200 9 1 19 0 9.675
201 10 2 0 0 10.75
202 10 2 1 0 10.75
203 10 2 2 0 10.75
204 10 2 3 0 10.75
205 10 2 4 0 10.75
206 10 2 5 0 10.75
207 10 2 6 0 10.75
208 10 2 7 0 10.75
209 10 2 8 0 10.75
210 10 2 9 0 10.75
211 10 1 10 0 10.75
212 10 1 11 0 10.75
213 10 1 12 0 10.75
214 10 1 13 0 10.75
215 10 1 14 0 10.75
216 10 1 15 0 10.75
217 10 1 16 0 10.75
218 10 1 17 0 10.75
219 10 1 18 0 10.75
220 10 1 19 0 10.75
221 11 2 0 0 11.825
222 11 2 1 0 11.825
223 11 2 2 0 11.825
224 11 2 3 0 11.825
225 11 2 4 0 11.825
226 11 2 5 0 11.825
227 11 2 6 0 11.825
228 11 2 7 0 11.825
229 11 2 8 0 11.825
230 11 2 9 0 11.825
231 11 1 10 0 11.825
232 11 1 11 0 11.825
233 11 1 12 0 11.825
234 11 1 13 0 11.825
235 11 1 14 0 11.825
236 11 1 15 0 11.825
237 11 1 16 0 11.825
238 11 1 17 0 11.825
239 11 1 18 0 11.825
240 11 1 19 0 11.825
241 12 2 0 0 12.9
242 12 2 1 0 12.9
243 12 2 2 0 12.9
244 12 2 3 0 12.9
245 12 2 4 0 12.9
246 12 2 5 0 12.9
247 12 2 6 0 12.9
248 12 2 7 0 12.9
249 12 2 8 0 12.9
250 12 2 9 0 12.9
251 12 1 10 0 12.9
252 12 1 11 0 12.9
253 12 1 12 0 12.9
254 12 1 13 0 12.9
255 12 1 14 0 12.9
256 12 1 15 0 12.9
257 12 1 16 0 12.9
258 12 1 17 0 12.9
259 12 1 18 0 12.9
260 12 1 19 0 12.9
261 13 2 0 0 13.975
262 13 2 1 0 13.975
263 13 2 2 0 13.975
264 13 2 3 0 13.975
265 13 2 4 0 13.975
266 13 2 5 0 13.975
267 13 2 6 0 13.975
268 13 2 7 0 13.975
269 13 2 8 0 13.975
270 13 2 9 0 13.975
271 13 1 10 0 13.975
272 13 1 11 0 13.975
273 13 1 12 0 13.975
274 13 1 13 0 13.975
275 13 1 14 0 13.975
276 13 1 15 0 13.975
277 13 1 16 0 13.975
278 13 1 17 0 13.975
279 13 1 18 0 13.975
280 13 1 19 0 13.975
281 14 2 0 0 15.05
282 14 2 1 0 15.05
283 14 2 2 0 15.05
284 14 2 3 0 15.05
285 14 2 4 0 15.05
286 14 2 5 0 15.05
287 14 2 6 0 15.05
288 14 2 7 0 15.05
289 14 2 8 0 15.05
290 14 2 9 0 15.05
291 14 1 10 0 15.05
292 14 1 11 0 15.05
293 14 1 12 0 15.05
294 14 1 13 0 15.05
295 14 1 14 0 15.05
296 14 1 15 0 15.05
297 14 1 16 0 15.05
298 14 1 17 0 15.05
299 14 1 18 0 15.05
300 14 1 19 0 15.05
301 15 2 0 0 16.125
302 15 2 1 0 16.125
303 15 2 2 0 16.125
304 15 2 3 0 16.125
305 15 2 4 0 16.125
306 15 2 5 0 16.125
307 15 2 6 0 16.125
308 15 2 7 0 16.125
309 15 2 8 0 16.125
310 15 2 9 0 16.125
311 15 1 10 0 16.125
312 15 1 11 0 16.125
313 15 1 12 0 16.125
314 15 1 13 0 16.125
315 15 1 14 0 16.125
316 15 1 15 0 16.125
317 15 1 16 0 16.125
318 15 1 17 0 16.125
319 15 1 18 0 16.125
320 15 1 19 0 16.125
321 16 2 0 0 17.2
322 16 2 1 0 17.2
323 16 2 2 0 17.2
324 16 2 3 0 17.2
325 16 2 4 0 17.2
326 16 2 5 0 17.2
327 16 2 6 0 17.2
328 16 2 7 0 17.2
329 16 2 8 0 17.2
330 16 2 9 0 17.2
331 16 1 10 0 17.2
332 16 1 11 0 17.2
333 16 1 12 0 17.2
334 16 1 13 0 17.2
335 16 1 14 0 17.2
336 16 1 15 0 17.2
337 16 1 16 0 17.2
338 16 1 17 0 17.2
339 16 1 18 0 17.2
340 16 1 19 0 17.2
341 17 2 0 0 18.275
342 17 2 1 0 18.275
343 17 2 2 0 18.275
344 17 2 3 0 18.275
345 17 2 4 0 18.275
346 17 2 5 0 18.275
347 17 2 6 0 18.275
348 17 2 7 0 18.275
349 17 2 8 0 18.275
350 17 2 9 0 18.275
351 17 1 10 0 18.275
352 17 1 11 0 18.275
353 17 1 12 0 18.275
354 17 1 13 0 18.275
355 17 1 14 0 18.275
356 17 1 15 0 18.275
357 17 1 16 0 18.275
358 17 1 17 0 18.275
359 17 1 18 0 18.275
360 17 1 19 0 18.275
361 18 2 0 0 19.35
362 18 2 1 0 19.35
363 18 2 2 0 19.35
364 18 2 3 0 19.35
365 18 2 4 0 19.35
366 18 2 5 0 19.35
367 18 2 6 0 19.35
368 18 2 7 0 19.35
369 18 2 8 0 19.35
370 18 2 9 0 19.35
371 18 1 10 0 19.35
372 18 1 11 0 19.35
373 18 1 12 0 19.35
374 18 1 13 0 19.35
375 18 1 14 0 19.35
376 18 1 15 0 19.35
377 18 1 16 0 19.35
378 18 1 17 0 19.35
379 18 1 18 0 19.35
380 18 1 19 0 19.35
381 19 2 0 0 20.425
382 19 2 1 0 20.425
383 19 2 2 0 20.425
384 19 2 3 0 20.425
385 19 2 4 0 20.425
386 19 2 5 0 20.425
387 19 2 6 0 20.425
388 19 2 7 0 20.425
389 19 2 8 0 20.425
390 19 2 9 0 20.425
391 19 1 10 0 20.425
392 19 1 11 0 20.425
393 19 1 12 0 20.425
394 19 1 13 0 20.425
395 19 1 14 0 20.425
396 19 1 15 0 20.425
397 19 1 16 0 20.425
398 19 1 17 0 20.425
399 19 1 18 0 20.425
400 19 1 19 0 20.425
401 20 2 0 0 21.5
402 20 2 1 0 21.5
403 20 2 2 0 21.5
404 20 2 3 0 21.5
405 20 2 4 0 21.5
406 20 2 5 0 21.5
407 20 2 6 0 21.5
408 20 2 7 0 21.5
409 20 2 8 0 21.5
410 20 2 9 0 21.5
411 20 1 10 0 21.5
412 20 1 11 0 21.5
413 20 1 12 0 21.5
414 20 1 13 0 21.5
415 20 1 14 0 21.5
416 20 1 15 0 21.5
417 20 1 16 0 21.5
418 20 1 17 0 21.5
419 20 1 18 0 21.5
420 20 1 19 0 21.5
421 21 2 0 0 22.575
422 21 2 1 0 22.575
423 21 2 2 0 22.575
424 21 2 3 0 22.575
425 21 2 4 0 22.575
426 21 2 5 0 22.575
427 21 2 6 0 22.575
428 21 2 7 0 22.575
429 21 2 8 0 22.575
430 21 2 9 0 22.575
431 21 1 10 0 22.575
432 21 1 11 0 22.575
433 21 1 12 0 22.575
434 21 1 13 0 22.575
435 21 1 14 0 22.575
436 21 1 15 0 22.575
437 21 1 16 0 22.575
438 21 1 17 0 22.575
439 21 1 18 0 22.575
440 21 1 19 0 22.575
441 22 2 0 0 23.65
442 22 2 1 0 23.65
443 22 2 2 0 23.65
444 22 2 3 0 23.65
445 22 2 4 0 23.65
446 22 2 5 0 23.65
447 22 2 6 0 23.65
448 22 2 7 0 23.65
449 22 2 8 0 23.65
450 22 2 9 0 23.65
451 22 1 10 0 23.65
452 22 1 11 0 23.65
453 22 1 12 0 23.65
454 22 1 13 0 23.65
455 22 1 14 0 23.65
456 22 1 15 0 23.65
457 22 1 16 0 23.65
458 22 1 17 0 23.65
459 22 1 18 0 23.65
460 22 1 19 0 23.65
461 23 2 0 0 24.725
462 23 2 1 0 24.725
463 23 2 2 0 24.725
464 23 2 3 0 24.725
465 23 2 4 0 24.725
466 23 2 5 0 24.725
467 23 2 6 0 24.725
468 23 2 7 0 24.725
469 23 2 8 0 24.725
470 23 2 9 0 24.725
471 23 1 10 0 24.725
472 23 1 11 0 24.725
473 23 1 12 0 24.725
474 23 1 13 0 24.725
475 23 1 14 0 24.725
476 23 1 15 0 24.725
477 23 1 16 0 24.725
478 23 1 17 0 24.725
479 23 1 18 0 24.725
480 23 1 19 0 24.725
481 24 2 0 0 25.8
482 24 2 1 0 25.8
483 24 2 2 0 25.8
484 24 2 3 0 25.8
485 24 2 4 0 25.8
486 24 2 5 0 25.8
487 24 2 6 0 25.8
488 24 2 7 0 25.8
489 24 2 8 0 25.8
490 24 2 9 0 25.8
491 24 1 10 0 25.8
492 24 1 11 0 25.8
493 24 1 12 0 25.8
494 24 1 13 0 25.8
495 24 1 14 0 25.8
496 24 1 15 0 25.8
497 24 1 16 0 25.8
498 24 1 17 0 25.8
499 24 1 18 0 25.8
500 24 1 19 0 25.8
501 25 2 0 0 26.875
502 25 2 1 0 26.875
503 25 2 2 0 26.875
504 25 2 3 0 26.875
505 25 2 4 0 26.875
506 25 2 5 0 26.875
507 25 2 6 0 26.875
508 25 2 7 0 26.875
509 25 2 8 0 26.875
510 25 2 9 0 26.875
511 25 1 10 0 26.875
512 25 1 11 0 26.875
513 25 1 12 0 26.875
514 25 1 13 0 26.875
515 25 1 14 0 26.875
516 25 1 15 0 26.875
517 25 1 16 0 26.875
518 25 1 17 0 26.875
519 25 1 18 0 26.875
520 25 1 19 0 26.875
521 26 2 0 0 27.95
522 26 2 1 0 27.95
523 26 2 2 0 27.95
524 26 2 3 0 27.95
525 26 2 4 0 27.95
526 26 2 5 0 27.95
527 26 2 6 0 27.95
528 26 2 7 0 27.95
529 26 2 8 0 27.95
530 26 2 9 0 27.95
531 26 1 10 0 27.95
532 26 1 11 0 27.95
533 26 1 12 0 27.95
534 26 1 13 0 27.95
535 26 1 14 0 27.95
536 26 1 15 0 27.95
537 26 1 16 0 27.95
538 26 1 17 0 27.95
539 26 1 18 0 27.95
540 26 1 19 0 27.95
541 27 2 0 0 29.025
542 27 2 1 0 29.025
543 27 2 2 0 29.025
544 27 2 3 0 29.025
545 27 2 4 0 29.025
546 27 2 5 0 29.025
547 27 2 6 0 29.025
548 27 2 7 0 29.025
549 27 2 8 0 29.025
550 27 2 9 0 29.025
551 27 1 10 0 29.025
552 27 1 11 0 29.025
553 27 1 12 0 29.025
554 27 1 13 0 29.025
555 27 1 14 0 29.025
556 27 1 15 0 29.025
557 27 1 16 0 29.025
558 27 1 17 0 29.025
559 27 1 18 0 29.025
560 27 1 19 0 29.025
561 28 2 0 0 30.1
562 28 2 1 0 30.1
563 28 2 2 0 30.1
564 28 2 3 0 30.1
565 28 2 4 0 30.1
566 28 2 5 0 30.1
567 28 2 6 0 30.1
568 28 2 7 0 30.1
569 28 2 8 0 30.1
570 28 2 9 0 30.1
571 28 1 10 0 30.1
572 28 1 11 0 30.1
573 28 1 12 0 30.1
574 28 1 13 0 30.1
575 28 1 14 0 30.1
576 28 1 15 0 30.1
577 28 1 16 0 30.1
578 28 1 17 0 30.1
579 28 1 18 0 30.1
580 28 1 19 0 30.1
581 29 2 0 0 31.175
582 29 2 1 0 31.175
583 29 2 2 0 31.175
584 29 2 3 0 31.175
585 29 2 4 0 31.175
586 29 2 5 0 31.175
587 29 2 6 0 31.175
588 29 2 7 0 31.175
589 29 2 8 0 31.175
590 29 2 9 0 31.175
591 29 1 10 0 31.175
592 29 1 11 0 31.175
593 29 1 12 0 31.175
594 29 1 13 0 31.175
595 29 1 14 0 31.175
596 29 1 15 0 31.175
597 29 1 16 0 31.175
598 29 1 17 0 31.175
599 29 1 18 0 31.175
600 29 1 19 0 31.175
601 30 2 0 0 32.25
602 30 2 1 0 32.25
603 30 2 2 0 32.25
604 30 2 3 0 32.25
605 30 2 4 0 32.25
606 30 2 5 0 32.25
607 30 2 6 0 32.25
608 30 2 7 0 32.25
609 30 2 8 0 32.25
610 30 2 9 0 32.25
611 30 1 10 0 32.25
612 30 1 11 0 32.25
613 30 1 12 0 32.25
614 30 1 13 0 32.25
615 30 1 14 0 32.25
616 30 1 15 0 32.25
617 30 1 16 0 32.25
618 30 1 17 0 32.25
619 30 1 18 0 32.25
620 30 1 19 0 32.25
621 31 2 0 0 33.325
622 31 2 1 0 33.325
623 31 2 2 0 33.325
624 31 2 3 0 33.325
625 31 2 4 0 33.325
626 31 2 5 0 33.325
627 31 2 6 0 33.325
628 31 2 7 0 33.325
629 31 2 8 0 33.325
630 31 2 9 0 33.325
631 31 1 10 0 33.325
632 31 1 11 0 33.325
633 31 1 12 0 33.325
634 31 1 13 0 33.325
635 31 1 14 0 33.325
636 31 1 15 0 33.325
637 31 1 16 0 33.325
638 31 1 17 0 33.325
639 31 1 18 0 33.325
640 31 1 19 0 33.325
641 32 2 0 0 34.4
642 32 2 1 0 34.4
643 32 2 2 0 34.4
644 32 2 3 0 34.4
645 32 2 4 0 34.4
646 32 2 5 0 34.4
647 32 2 6 0 34.4
648 32 2 7 0 34.4
649 32 2 8 0 34.4
650 32 2 9 0 34.4
651 32 1 10 0 34.4
652 32 1 11 0 34.4
653 32 1 12 0 34.4
654 32 1 13 0 34.4
655 32 1 14 0 34.4
656 32 1 15 0 34.4
657 32 1 16 0 34.4
658 32 1 17 0 34.4
659 32 1 18 0 34.4
660 32 1 19 0 34.4
661 33 2 0 0 35.475
662 33 2 1 0 35.475
663 33 2 2 0 35.475
664 33 2 3 0 35.475
665 33 2 4 0 35.475
666 33 2 5 0 35.475
667 33 2 6 0 35.475
668 33 2 7 0 35.475
669 33 2 8 0 35.475
670 33 2 9 0 35.475
671 33 1 10 0 35.475
672 33 1 11 0 35.475
673 33 1 12 0 35.475
674 33 1 13 0 35.475
675 33 1 14 0 35.475
676 33 1 15 0 35.475
677 33 1 16 0 35.475
678 33 1 17 0 35.475
679 33 1 18 0 35.475
680 33 1 19 0 35.475
681 34 2 0 0 36.55
682 34 2 1 0 36.55
683 34 2 2 0 36.55
684 34 2 3 0 36.55
685 34 2 4 0 36.55
686 34 2 5 0 36.55
687 34 2 6 0 36.55
688 34 2 7 0 36.55
689 34 2 8 0 36.55
690 34 2 9 0 36.55
691 34 1 10 0 36.55
692 34 1 11 0 36.55
693 34 1 12 0 36.55
694 34 1 13 0 36.55
695 34 1 14 0 36.55
696 34 1 15 0 36.55
697 34 1 16 0 36.55
698 34 1 17 0 36.55
699 34 1 18 0 36.55
700 34 1 19 0 36.55
701 35 2 0 0 37.625
702 35 2 1 0 37.625
703 35 2 2 0 37.625
704 35 2 3 0 37.625
705 35 2 4 0 37.625
706 35 2 5 0 37.625
707 35 2 6 0 37.625
708 35 2 7 0 37.625
709 35 2 8 0 37.625
710 35 2 9 0 37.625
711 35 1 10 0 37.625
712 35 1 11 0 37.625
713 35 1 12 0 37.625
714 35 1 13 0 37.625
715 35 1 14 0 37.625
716 35 1 15 0 37.625
717 35 1 16 0 37.625
718 35 1 17 0 37.625
719 35 1 18 0 37.625
720 35 1 19 0 37.625
721 36 2 0 0 38.7
722 36 2 1 0 38.7
723 36 2 2 0 38.7
724 36 2 3 0 38.7
725 36 2 4 0 38.7
726 36 2 5 0 38.7
727 36 2 6 0 38.7
728 36 2 7 0 38.7
729 36 2 8 0 38.7
730 36 2 9 0 38.7
731 36 1 10 0 38.7
732 36 1 11 0 38.7
733 36 1 12 0 38.7
734 36 1 13 0 38.7
735 36 1 14 0 38.7
736 36 1 15 0 38.7
737 36 1 16 0 38.7
738 36 1 17 0 38.7
739 36 1 18 0 38.7
740 36 1 19 0 38.7
741 37 2 0 0 39.775
742 37 2 1 0 39.775
743 37 2 2 0 39.775
744 37 2 3 0 39.775
745 37 2 4 0 39.775
746 37 2 5 0 39.775
747 37 2 6 0 39.775
748 37 2 7 0 39.775
749 37 2 8 0 39.775
750 37 2 9 0 39.775
751 37 1 10 0 39.775
752 37 1 11 0 39.775
753 37 1 12 0 39.775
754 37 1 13 0 39.775
755 37 1 14 0 39.775
756 37 1 15 0 39.775
757 37 1 16 0 39.775
758 37 1 17 0 39.775
759 37 1 18 0 39.775
760 37 1 19 0 39.775
761 38 2 0 0 40.85
762 38 2 1 0 40.85
763 38 2 2 0 40.85
764 38 2 3 0 40.85
765 38 2 4 0 40.85
766 38 2 5 0 40.85
767 38 2 6 0 40.85
768 38 2 7 0 40.85
769 38 2 8 0 40.85
770 38 2 9 0 40.85
771 38 1 10 0 40.85
772 38 1 11 0 40.85
773 38 1 12 0 40.85
774 38 1 13 0 40.85
775 38 1 14 0 40.85
776 38 1 15 0 40.85
777 38 1 16 0 40.85
778 38 1 17 0 40.85
779 38 1 18 0 40.85
780 38 1 19 0 40.85
781 39 2 0 0 41.925
782 39 2 1 0 41.925
783 39 2 2 0 41.925
784 39 2 3 0 41.925
785 39 2 4 0 41.925
786 39 2 5 0 41.925
787 39 2 6 0 41.925
788 39 2 7 0 41.925
789 39 2 8 0 41.925
790 39 2 9 0 41.925
791 39 1 10 0 41.925
792 39 1 11 0 41.925
793 39 1 12 0 41.925
794 39 1 13 0 41.925
795 39 1 14 0 41.925
796 39 1 15 0 41.925
797 39 1 16 0 41.925
798 39 1 17 0 41.925
799 39 1 18 0 41.925
800 39 1 19 0 41.925
801 40 2 0 1.075 0
802 40 2 1 1.075 0
803 40 2 2 1.075 0
804 40 2 3 1.075 0
805 40 2 4 1.075 0
806 40 2 5 1.075 0
807 40 2 6 1.075 0
808 40 2 7 1.075 0
809 40 2 8 1.075 0
810 40 2 9 1.075 0
811 40 1 10 1.075 0
812 40 1 11 1.075 0
813 40 1 12 1.075 0
814 40 1 13 1.075 0
815 40 1 14 1.075 0
816 40 1 15 1.075 0
817 40 1 16 1.075 0
818 40 1 17 1.075 0
819 40 1 18 1.075 0
820 40 1 19 1.075 0
821 41 2 0 1.075 1.075
822 41 2 1 1.075 1.075
823 41 2 2 1.075 1.075
824 41 2 3 1.075 1.075
825 41 2 4 1.075 1.075
826 41 2 5 1.075 1.075
827 41 2 6 1.075 1.075
828 41 2 7 1.075 1.075
829 41 2 8 1.075 1.075
830 41 2 9 1.075 1.075
831 41 1 10 1.075 1.075
832 41 1 11 1.075 1.075
833 41 1 12 1.075 1.075
834 41 1 13 1.075 1.075
835 41 1 14 1.075 1.075
836 41 1 15 1.075 1.075
837 41 1 16 1.075 1.075
838 41 1 17 1.075 1.075
839 41 1 18 1.075 1.075
840 41 1 19 1.075 1.075
841 42 2 0 1.075 2.15
842 42 2 1 1.075 2.15
843 42 2 2 1.075 2.15
844 42 2 3 1.075 2.15
845 42 2 4 1.075 2.15
846 42 2 5 1.075 2.15
847 42 2 6 1.075 2.15
848 42 2 7 1.075 2.15
849 42 2 8 1.075 2.15
850 42 2 9 1.075 2.15
851 42 1 10 1.075 2.15
852 42 1 11 1.075 2.15
853 42 1 12 1.075 2.15
854 42 1 13 1.075 2.15
855 42 1 14 1.075 2.15
856 42 1 15 1.075 2.15
857 42 1 16 1.075 2.15
858 42 1 17 1.075 2.15
859 42 1 18 1.075 2.15
860 42 1 19 1.075 2.15
861 43 2 0 1.075 3.225
862 43 2 1 1.075 3.225
863 43 2 2 1.075 3.225
864 43 2 3 1.075 3.225
865 43 2 4 1.075 3.225
866 43 2 5 1.075 3.225
867 43 2 6 1.075 3.225
868 43 2 7 1.075 3.225
869 43 2 8 1.075 3.225
870 43 2 9 1.075 3.225
871 43 1 10 1.075 3.225
872 43 1 11 1.075 3.225
873 43 1 12 1.075 3.225
874 43 1 13 1.075 3.225
875 43 1 14 1.075 3.225
876 43 1 15 1.075 3.225
877 43 1 16 1.075 3.225
878 43 1 17 1.075 3.225
879 43 1 18 1.075 3.225
880 43 1 19 1.075 3.225
881 44 2 0 1.075 4.3
882 44 2 1 1.075 4.3
883 44 2 2 1.075 4.3
884 44 2 3 1.075 4.3
885 44 2 4 1.075 4.3
886 44 2 5 1.075 4.3
887 44 2 6 1.075 4.3
888 44 2 7 1.075 4.3
889 44 2 8 1.075 4.3
890 44 2 9 1.075 4.3
891 44 1 10 1.075 4.3
892 44 1 11 1.075 4.3
893 44 1 12 1.075 4.3
894 44 1 13 1.075 4.3
895 44 1 14 1.075 4.3
896 44 1 15 1.075 4.3
897 44 1 16 1.075 4.3
898 44 1 17 1.075 4.3
899 44 1 18 1.075 4.3
900 44 1 19 1.075 4.3
901 45 2 0 1.075 5.375
902 45 2 1 1.075 5.375
903 45 2 2 1.075 5.375
904 45 2 3 1.075 5.375
905 45 2 4 1.075 5.375
906 45 2 5 1.075 5.375
907 45 2 6 1.075 5.375
908 45 2 7 1.075 5.375
909 45 2 8 1.075 5.375
910 45 2 9 1.075 5.375
911 45 1 10 1.075 5.375
912 45 1 11 1.075 5.375
913 45 1 12 1.075 5.375
914 45 1 13 1.075 5.375
915 45 1 14 1.075 5.375
916 45 1 15 1.075 5.375
917 45 1 16 1.075 5.375
918 45 1 17 1.075 5.375
919 45 1 18 1.075 5.375
920 45 1 19 1.075 5.375
921 46 2 0 1.075 6.45
922 46 2 1 1.075 6.45
923 46 2 2 1.075 6.45
924 46 2 3 1.075 6.45
925 46 2 4 1.075 6.45
926 46 2 5 1.075 6.45
927 46 2 6 1.075 6.45
928 46 2 7 1.075 6.45
929 46 2 8 1.075 6.45
930 46 2 9 1.075 6.45
931 46 1 10 1.075 6.45
932 46 1 11 1.075 6.45
933 46 1 12 1.075 6.45
934 46 1 13 1.075 6.45
935 46 1 14 1.075 6.45
936 46 1 15 1.075 6.45
937 46 1 16 1.075 6.45
938 46 1 17 1.075 6.45
939 46 1 18 1.075 6.45
940 46 1 19 1.075 6.45
941 47 2 0 1.075 7.525
942 47 2 1 1.075 7.525
943 47 2 2 1.075 7.525
944 47 2 3 1.075 7.525
945 47 2 4 1.075 7.525
946 47 2 5 1.075 7.525
947 47 2 6 1.075 7.525
948 47 2 7 1.075 7.525
949 47 2 8 1.075 7.525
950 47 2 9 1.075 7.525
951 47 1 10 1.075 7.525
952 47 1 11 1.075 7.525
953 47 1 12 1.075 7.525
954 47 1 13 1.075 7.525
955 47 1 14 1.075 7.525
956 47 1 15 1.075 7.525
957 47 1 16 1.075 7.525
958 47 1 17 1.075 7.525
959 47 1 18 1.075 7.525
960 47 1 19 1.075 7.525
961 48 2 0 1.075 8.6
962 48 2 1 1.075 8.6
963 48 2 2 1.075 8.6
964 48 2 3 1.075 8.6
965 48 2 4 1.075 8.6
966 48 2 5 1.075 8.6
967 48 2 6 1.075 8.6
968 48 2 7 1.075 8.6
969 48 2 8 1.075 8.6
970 48 2 9 1.075 8.6
971 48 1 10 1.075 8.6
972 48 1 11 1.075 8.6
973 48 1 12 1.075 8.6
974 48 1 13 1.075 8.6
975 48 1 14 1.075 8.6
976 48 1 15 1.075 8.6
977 48 1 16 1.075 8.6
978 48 1 17 1.075 8.6
979 48 1 18 1.075 8.6
980 48 1 19 1.075 8.6
981 49 2 0 1.075 9.675
982 49 2 1 1.075 9.675
983 49 2 2 1.075 9.675
984 49 2 3 1.075 9.675
985 49 2 4 1.075 9.675
986 49 2 5 1.075 9.675
987 49 2 6 1.075 9.675
988 49 2 7 1.075 9.675
989 49 2 8 1.075 9.675
990 49 2 9 1.075 9.675
991 49 1 10 1.075 9.675
992 49 1 11 1.075 9.675
993 49 1 12 1.075 9.675
994 49 1 13 1.075 9.675
995 49 1 14 1.075 9.675
996 49 1 15 1.075 9.675
997 49 1 16 1.075 9.675
998 49 1 17 1.075 9.675
999 49 1 18 1.075 9.675
1000 49 1 19 1.075 9.675
1001 50 2 0 1.075 10.75
1002 50 2 1 1.075 10.75
1003 50 2 2 1.075 10.75
1004 50 2 3 1.075 10.75
1005 50 2 4 1.075 10.75
1006 50 2 5 1.075 10.75
1007 50 2 6 1.075 10.75
1008 50 2 7 1.075 10.75
1009 50 2 8 1.075 10.75
1010 50 2 9 1.075 10.75
1011 50 1 10 1.075 10.75
1012 50 1 11 1.075 10.75
1013 50 1 12 1.075 10.75
1014 50 1 13 1.075 10.75
1015 50 1 14 1.075 10.75
1016 50 1 15 1.075 10.75
1017 50 1 16 1.075 10.75
1018 50 1 17 1.075 10.75
1019 50 1 18 1.075 10.75
1020 50 1 19 1.075 10.75
1021 51 2 0 1.075 11.825
1022 51 2 1 1.075 11.825
1023 51 2 2 1.075 11.825
1024 51 2 3 1.075 11.825
1025 51 2 4 1.075 11.825
1026 51 2 5 1.075 11.825
1027 51 2 6 1.075 11.825
1028 51 2 7 1.075 11.825
1029 51 2 8 1.075 11.825
1030 51 2 9 1.075 11.825
1031 51 1 10 1.075 11.825
1032 51 1 11 1.075 11.825
1033 51 1 12 1.075 11.825
1034 51 1 13 1.075 11.825
1035 51 1 14 1.075 11.825
1036 51 1 15 1.075 11.825
1037 51 1 16 1.075 11.825
1038 51 1 17 1.075 11.825
1039 51 1 18 1.075 11.825
1040 51 1 19 1.075 11.825
1041 52 2 0 1.075 12.9
1042 52 2 1 1.075 12.9
1043 52 2 2 1.075 12.9
1044 52 2 3 1.075 12.9
1045 52 2 4 1.075 12.9
1046 52 2 5 1.075 12.9
1047 52 2 6 1.075 12.9
1048 52 2 7 1.075 12.9
1049 52 2 8 1.075 12.9
1050 52 2 9 1.075 12.9
1051 52 1 10 1.075 12.9
1052 52 1 11 1.075 12.9
1053 52 1 12 1.075 12.9
1054 52 1 13 1.075 12.9
1055 52 1 14 1.075 12.9
1056 52 1 15 1.075 12.9
1057 52 1 16 1.075 12.9
1058 52 1 17 1.075 12.9
1059 52 1 18 1.075 12.9
1060 52 1 19 1.075 12.9
1061 53 2 0 1.075 13.975
1062 53 2 1 1.075 13.975
1063 53 2 2 1.075 13.975
1064 53 2 3 1.075 13.975
1065 53 2 4 1.075 13.975
1066 53 2 5 1.075 13.975
1067 53 2 6 1.075 13.975
1068 53 2 7 1.075 13.975
1069 53 2 8 1.075 13.975
1070 53 2 9 1.075 13.975
1071 53 1 10 1.075 13.975
1072 53 1 11 1.075 13.975
1073 53 1 12 1.075 13.975
1074 53 1 13 1.075 13.975
1075 53 1 14 1.075 13.975
1076 53 1 15 1.075 13.975
1077 53 1 16 1.075 13.975
1078 53 1 17 1.075 13.975
1079 53 1 18 1.075 13.975
1080 53 1 19 1.075 13.975
1081 54 2 0 1.075 15.05
1082 54 2 1 1.075 15.05
1083 54 2 2 1.075 15.05
1084 54 2 3 1.075 15.05
1085 54 2 4 1.075 15.05
1086 54 2 5 1.075 15.05
1087 54 2 6 1.075 15.05
1088 54 2 7 1.075 15.05
1089 54 2 8 1.075 15.05
1090 54 2 9 1.075 15.05
1091 54 1 10 1.075 15.05
1092 54 1 11 1.075 15.05
1093 54 1 12 1.075 15.05
1094 54 1 13 1.075 15.05
1095 54 1 14 1.075 15.05
1096 54 1 15 1.075 15.05
1097 54 1 16 1.075 15.05
1098 54 1 17 1.075 15.05
1099 54 1 18 1.075 15.05
1100 54 1 19 1.075 15.05
1101 55 2 0 1.075 16.125
1102 55 2 1 1.075 16.125
1103 55 2 2 1.075 16.125
1104 55 2 3 1.075 16.125
1105 55 2 4 1.075 16.125
1106 55 2 5 1.075 16.125
1107 55 2 6 1.075 16.125
1108 55 2 7 1.075 16.125
1109 55 2 8 1.075 16.125
1110 55 2 9 1.075 16.125
1111 55 1 10 1.075 16.125
1112 55 1 11 1.075 16.125
1113 55 1 12 1.075 16.125
1114 55 1 13 1.075 16.125
1115 55 1 14 1.075 16.125
1116 55 1 15 1.075 16.125
1117 55 1 16 1.075 16.125
1118 55 1 17 1.075 16.125
1119 55 1 18 1.075 16.125
1120 55 1 19 1.075 16.125
1121 56 2 0 1.075 17.2
1122 56 2 1 1.075 17.2
1123 56 2 2 1.075 17.2
1124 56 2 3 1.075 17.2
1125 56 2 4 1.075 17.2
1126 56 2 5 1.075 17.2
1127 56 2 6 1.075 17.2
1128 56 2 7 1.075 17.2
1129 56 2 8 1.075 17.2
1130 56 2 9 1.075 17.2
1131 56 1 10 1.075 17.2
1132 56 1 11 1.075 17.2
1133 56 1 12 1.075 17.2
1134 56 1 13 1.075 17.2
1135 56 1 14 1.075 17.2
1136 56 1 15 1.075 17.2
1137 56 1 16 1.075 17.2
1138 56 1 17 1.075 17.2
1139 56 1 18 1.075 17.2
1140 56 1 19 1.075 17.2
1141 57 2 0 1.075 18.275
1142 57 2 1 1.075 18.275
1143 57 2 2 1.075 18.275
1144 57 2 3 1.075 18.275
1145 57 2 4 1.075 18.275
1146 57 2 5 1.075 18.275
1147 57 2 6 1.075 18.275
1148 57 2 7 1.075 18.275
1149 57 2 8 1.075 18.275
1150 57 2 9 1.075 18.275
1151 57 1 10 1.075 18.275
1152 57 1 11 1.075 18.275
1153 57 1 12 1.075 18.275
1154 57 1 13 1.075 18.275
1155 57 1 14 1.075 18.275
1156 57 1 15 1.075 18.275
1157 57 1 16 1.075 18.275
1158 57 1 17 1.075 18.275
1159 57 1 18 1.075 18.275
1160 57 1 19 1.075 18.275
1161 58 2 0 1.075 19.35
1162 58 2 1 1.075 19.35
1163 58 2 2 1.075 19.35
1164 58 2 3 1.075 19.35
1165 58 2 4 1.075 19.35
1166 58 2 5 1.075 19.35
1167 58 2 6 1.075 19.35
1168 58 2 7 1.075 19.35
1169 58 2 8 1.075 19.35
1170 58 2 9 1.075 19.35
1171 58 1 10 1.075 19.35
1172 58 1 11 1.075 19.35
1173 58 1 12 1.075 19.35
1174 58 1 13 1.075 19.35
1175 58 1 14 1.075 19.35
1176 58 1 15 1.075 19.35
1177 58 1 16 1.075 19.35
1178 58 1 17 1.075 19.35
1179 58 1 18 1.075 19.35
1180 58 1 19 1.075 19.35
1181 59 2 0 1.075 20.425
1182 59 2 1 1.075 20.425
1183 59 2 2 1.075 20.425
1184 59 2 3 1.075 20.425
1185 59 2 4 1.075 20.425
1186 59 2 5 1.075 20.425
1187 59 2 6 1.075 20.425
1188 59 2 7 1.075 20.425
1189 59 2 8 1.075 20.425
1190 59 2 9 1.075 20.425
1191 59 1 10 1.075 20.425
1192 59 1 11 1.075 20.425
1193 59 1 12 1.075 20.425
1194 59 1 13 1.075 20.425
1195 59 1 14 1.075 20.425
1196 59 1 15 1.075 20.425
1197 59 1 16 1.075 20.425
1198 59 1 17 1.075 20.425
1199 59 1 18 1.075 20.425
1200 59 1 19 1.075 20.425
1201 60 2 0 1.075 21.5
1202 60 2 1 1.075 21.5
1203 60 2 2 1.075 21.5
1204 60 2 3 1.075 21.5
1205 60 2 4 1.075 21.5
1206 60 2 5 1.075 21.5
1207 60 2 6 1.075 21.5
1208 60 2 7 1.075 21.5
1209 60 2 8 1.075 21.5
1210 60 2 9 1.075 21.5
1211 60 1 10 1.075 21.5
1212 60 1 11 1.075 21.5
1213 60 1 12 1.075 21.5
1214 60 1 13 1.075 21.5
1215 60 1 14 1.075 21.5
1216 60 1 15 1.075 21.5
1217 60 1 16 1.075 21.5
1218 60 1 17 1.075 21.5
1219 60 1 18 1.075 21.5
1220 60 1 19 1.075 21.5
1221 61 2 0 1.075 22.575
1222 61 2 1 1.075 22.575
1223 61 2 2 1.075 22.575
1224 61 2 3 1.075 22.575
1225 61 2 4 1.075 22.575
1226 61 2 5 1.075 22.575
1227 61 2 6 1.075 22.575
1228 61 2 7 1.075 22.575
1229 61 2 8 1.075 22.575
1230 61 2 9 1.075 22.575
1231 61 1 10 1.075 22.575
1232 61 1 11 1.075 22.575
1233 61 1 12 1.075 22.575
1234 61 1 13 1.075 22.575
1235 61 1 14 1.075 22.575
1236 61 1 15 1.075 22.575
1237 61 1 16 1.075 22.575
1238 61 1 17 1.075 22.575
1239 61 1 18 1.075 22.575
1240 61 1 19 1.075 22.575
1241 62 2 0 1.075 23.65
1242 62 2 1 1.075 23.65
1243 62 2 2 1.075 23.65
1244 62 2 3 1.075 23.65
1245 62 2 4 1.075 23.65
1246 62 2 5 1.075 23.65
1247 62 2 6 1.075 23.65
1248 62 2 7 1.075 23.65
1249 62 2 8 1.075 23.65
1250 62 2 9 1.075 23.65
1251 62 1 10 1.075 23.65
1252 62 1 11 1.075 23.65
1253 62 1 12 1.075 23.65
1254 62 1 13 1.075 23.65
1255 62 1 14 1.075 23.65
1256 62 1 15 1.075 23.65
1257 62 1 16 1.075 23.65
1258 62 1 17 1.075 23.65
1259 62 1 18 1.075 23.65
1260 62 1 19 1.075 23.65
1261 63 2 0 1.075 24.725
1262 63 2 1 1.075 24.725
1263 63 2 2 1.075 24.725
1264 63 2 3 1.075 24.725
1265 63 2 4 1.075 24.725
1266 63 2 5 1.075 24.725
1267 63 2 6 1.075 24.725
1268 63 2 7 1.075 24.725
1269 63 2 8 1.075 24.725
1270 63 2 9 1.075 24.725
1271 63 1 10 1.075 24.725
1272 63 1 11 1.075 24.725
1273 63 1 12 1.075 24.725
1274 63 1 13 1.075 24.725
1275 63 1 14 1.075 24.725
1276 63 1 15 1.075 24.725
1277 63 1 16 1.075 24.725
1278 63 1 17 1.075 24.725
1279 63 1 18 1.075 24.725
1280 63 1 19 1.075 24.725
1281 64 2 0 1.075 25.8
1282 64 2 1 1.075 25.8
1283 64 2 2 1.075 25.8
1284 64 2 3 1.075 25.8
1285 64 2 4 1.075 25.8
1286 64 2 5 1.075 25.8
1287 64 2 6 1.075 25.8
1288 64 2 7 1.075 25.8
1289 64 2 8 1.075 25.8
1290 64 2 9 1.075 25.8
1291 64 1 10 1.075 25.8
1292 64 1 11 1.075 25.8
1293 64 1 12 1.075 25.8
1294 64 1 13 1.075 25.8
1295 64 1 14 1.075 25.8
1296 64 1 15 1.075 25.8
1297 64 1 16 1.075 25.8
1298 64 1 17 1.075 25.8
1299 64 1 18 1.075 25.8
1300 64 1 19 1.075 25.8
1301 65 2 0 1.075 26.875
1302 65 2 1 1.075 26.875
1303 65 2 2 1.075 26.875
1304 65 2 3 1.075 26.875
1305 65 2 4 1.075 26.875
1306 65 2 5 1.075 26.875
1307 65 2 6 1.075 26.875
1308 65 2 7 1.075 26.875
1309 65 2 8 1.075 26.875
1310 65 2 9 1.075 26.875
1311 65 1 10 1.075 26.875
1312 65 1 11 1.075 26.875
1313 65 1 12 1.075 26.875
1314 65 1 13 1.075 26.875
1315 65 1 14 1.075 26.875
1316 65 1 15 1.075 26.875
1317 65 1 16 1.075 26.875
1318 65 1 17 1.075 26.875
1319 65 1 18 1.075 26.875
1320 65 1 19 1.075 26.875
1321 66 2 0 1.075 27.95
1322 66 2 1 1.075 27.95
1323 66 2 2 1.075 27.95
1324 66 2 3 1.075 27.95
1325 66 2 4 1.075 27.95
1326 66 2 5 1.075 27.95
1327 66 2 6 1.075 27.95
1328 66 2 7 1.075 27.95
1329 66 2 8 1.075 27.95
1330 66 2 9 1.075 27.95
1331 66 1 10 1.075 27.95
1332 66 1 11 1.075 27.95
1333 66 1 12 1.075 27.95
1334 66 1 13 1.075 27.95
1335 66 1 14 1.075 27.95
1336 66 1 15 1.075 27.95
1337 66 1 16 1.075 27.95
1338 66 1 17 1.075 27.95
1339 66 1 18 1.075 27.95
1340 66 1 19 1.075 27.95
1341 67 2 0 1.075 29.025
1342 67 2 1 1.075 29.025
1343 67 2 2 1.075 29.025
1344 67 2 3 1.075 29.025
1345 67 2 4 1.075 29.025
1346 67 2 5 1.075 29.025
1347 67 2 6 1.075 29.025
1348 67 2 7 1.075 29.025
1349 67 2 8 1.075 29.025
1350 67 2 9 1.075 29.025
1351 67 1 10 1.075 29.025
1352 67 1 11 1.075 29.025
1353 67 1 12 1.075 29.025
1354 67 1 13 1.075 29.025
1355 67 1 14 1.075 29.025
1356 67 1 15 1.075 29.025
1357 67 1 16 1.075 29.025
1358 67 1 17 1.075 29.025
1359 67 1 18 1.075 29.025
1360 67 1 19 1.075 29.025
1361 68 2 0 1.075 30.1
1362 68 2 1 1.075 30.1
1363 68 2 2 1.075 30.1
1364 68 2 3 1.075 30.1
1365 68 2 4 1.075 30.1
1366 68 2 5 1.075 30.1
1367 68 2 6 1.075 30.1
1368 68 2 7 1.075 30.1
1369 68 2 8 1.075 30.1
1370 68 2 9 1.075 30.1
1371 68 1 10 1.075 30.1
1372 68 1 11 1.075 30.1
1373 68 1 12 1.075 30.1
1374 68 1 13 1.075 30.1
1375 68 1 14 1.075 30.1
1376 68 1 15 1.075 30.1
1377 68 1 16 1.075 30.1
1378 68 1 17 1.075 30.1
1379 68 1 18 1.075 30.1
1380 68 1 19 1.075 30.1
1381 69 2 0 1.075 31.175
1382 69 2 1 1.075 31.175
1383 69 2 2 1.075 31.175
1384 69 2 3 1.075 31.175
1385 69 2 4 1.075 31.175
1386 69 2 5 1.075 31.175
1387 69 2 6 1.075 31.175
1388 69 2 7 1.075 31.175
1389 69 2 8 1.075 31.175
1390 69 2 9 1.075 31.175
1391 69 1 10 1.075 31.175
1392 69 1 11 1.075 31.175
1393 69 1 12 1.075 31.175
1394 69 1 13 1.075 31.175
1395 69 1 14 1.075 31.175
1396 69 1 15 1.075 31.175
1397 69 1 16 1.075 31.175
1398 69 1 17 1.075 31.175
1399 69 1 18 1.075 31.175
1400 69 1 19 1.075 31.175
1401 70 2 0 1.075 32.25
1402 70 2 1 1.075 32.25
1403 70 2 2 1.075 32.25
1404 70 2 3 1.075 32.25
1405 70 2 4 1.075 32.25
1406 70 2 5 1.075 32.25
1407 70 2 6 1.075 32.25